<?xml version="1.0" encoding="UTF-8"?>

<!-- generated on 2022-10-30 19:36:11 by Eclipse SUMO GUI Version 1.14.1
<configuration xmlns:xsi="http://www.w3.org/2001/XMLSchema-instance" xsi:noNamespaceSchemaLocation="http://sumo.dlr.de/xsd/sumoConfiguration.xsd">

    <input>
        <net-file value="D:\STEMS\simple.net.xml"/>
        <route-files value="D:\STEMS\trips.trips.xml"/>
        <additional-files value="D:\STEMS\induction_loop_E1.add.xml"/>
    </input>

    <time>
        <begin value="0"/>
        <end value="10000"/>
    </time>

</configuration>
-->

<detector xmlns:xsi="http://www.w3.org/2001/XMLSchema-instance" xsi:noNamespaceSchemaLocation="http://sumo.dlr.de/xsd/det_e1_file.xsd">
    <interval begin="0.00" end="300.00" id="myLoop1" nVehContrib="27" flow="324.00" occupancy="18.73" speed="8.15" harmonicMeanSpeed="2.48" length="5.00" nVehEntered="28"/>
    <interval begin="0.00" end="300.00" id="myLoop2" nVehContrib="20" flow="240.00" occupancy="52.16" speed="4.06" harmonicMeanSpeed="0.80" length="5.00" nVehEntered="21"/>
    <interval begin="0.00" end="300.00" id="myLoop3" nVehContrib="38" flow="456.00" occupancy="43.64" speed="7.14" harmonicMeanSpeed="1.45" length="5.00" nVehEntered="38"/>
    <interval begin="0.00" end="300.00" id="myLoop4" nVehContrib="21" flow="252.00" occupancy="56.13" speed="3.06" harmonicMeanSpeed="0.63" length="5.00" nVehEntered="22"/>
    <interval begin="0.00" end="300.00" id="myLoop5" nVehContrib="30" flow="360.00" occupancy="40.10" speed="7.31" harmonicMeanSpeed="1.56" length="5.00" nVehEntered="31"/>
    <interval begin="0.00" end="300.00" id="myLoop6" nVehContrib="16" flow="192.00" occupancy="42.50" speed="3.81" harmonicMeanSpeed="0.82" length="5.00" nVehEntered="17"/>
    <interval begin="0.00" end="300.00" id="myLoop7" nVehContrib="30" flow="360.00" occupancy="39.32" speed="6.38" harmonicMeanSpeed="1.27" length="5.00" nVehEntered="30"/>
    <interval begin="0.00" end="300.00" id="myLoop8" nVehContrib="12" flow="144.00" occupancy="50.46" speed="2.77" harmonicMeanSpeed="0.40" length="5.00" nVehEntered="12"/>
    <interval begin="300.00" end="600.00" id="myLoop1" nVehContrib="40" flow="480.00" occupancy="48.65" speed="6.19" harmonicMeanSpeed="1.35" length="5.00" nVehEntered="39"/>
    <interval begin="300.00" end="600.00" id="myLoop2" nVehContrib="14" flow="168.00" occupancy="66.31" speed="1.99" harmonicMeanSpeed="0.32" length="5.00" nVehEntered="14"/>
    <interval begin="300.00" end="600.00" id="myLoop3" nVehContrib="22" flow="264.00" occupancy="43.43" speed="8.02" harmonicMeanSpeed="1.74" length="5.00" nVehEntered="24"/>
    <interval begin="300.00" end="600.00" id="myLoop4" nVehContrib="25" flow="300.00" occupancy="66.05" speed="3.34" harmonicMeanSpeed="0.69" length="5.00" nVehEntered="25"/>
    <interval begin="300.00" end="600.00" id="myLoop5" nVehContrib="43" flow="516.00" occupancy="39.95" speed="7.95" harmonicMeanSpeed="1.49" length="5.00" nVehEntered="42"/>
    <interval begin="300.00" end="600.00" id="myLoop6" nVehContrib="19" flow="228.00" occupancy="65.71" speed="2.41" harmonicMeanSpeed="0.42" length="5.00" nVehEntered="18"/>
    <interval begin="300.00" end="600.00" id="myLoop7" nVehContrib="34" flow="408.00" occupancy="31.90" speed="7.39" harmonicMeanSpeed="2.01" length="5.00" nVehEntered="35"/>
    <interval begin="300.00" end="600.00" id="myLoop8" nVehContrib="27" flow="324.00" occupancy="69.63" speed="3.43" harmonicMeanSpeed="0.70" length="5.00" nVehEntered="28"/>
    <interval begin="600.00" end="900.00" id="myLoop1" nVehContrib="38" flow="456.00" occupancy="49.88" speed="7.15" harmonicMeanSpeed="1.27" length="5.00" nVehEntered="38"/>
    <interval begin="600.00" end="900.00" id="myLoop2" nVehContrib="22" flow="264.00" occupancy="62.95" speed="3.04" harmonicMeanSpeed="0.56" length="5.00" nVehEntered="22"/>
    <interval begin="600.00" end="900.00" id="myLoop3" nVehContrib="31" flow="372.00" occupancy="43.72" speed="6.87" harmonicMeanSpeed="1.06" length="5.00" nVehEntered="30"/>
    <interval begin="600.00" end="900.00" id="myLoop4" nVehContrib="29" flow="348.00" occupancy="55.00" speed="3.66" harmonicMeanSpeed="0.80" length="5.00" nVehEntered="28"/>
    <interval begin="600.00" end="900.00" id="myLoop5" nVehContrib="42" flow="504.00" occupancy="60.03" speed="6.70" harmonicMeanSpeed="1.77" length="5.00" nVehEntered="43"/>
    <interval begin="600.00" end="900.00" id="myLoop6" nVehContrib="26" flow="312.00" occupancy="65.02" speed="2.86" harmonicMeanSpeed="0.67" length="5.00" nVehEntered="27"/>
    <interval begin="600.00" end="900.00" id="myLoop7" nVehContrib="16" flow="192.00" occupancy="42.33" speed="7.55" harmonicMeanSpeed="7.04" length="5.00" nVehEntered="17"/>
    <interval begin="600.00" end="900.00" id="myLoop8" nVehContrib="20" flow="240.00" occupancy="64.04" speed="3.90" harmonicMeanSpeed="0.61" length="5.00" nVehEntered="20"/>
    <interval begin="900.00" end="1200.00" id="myLoop1" nVehContrib="9" flow="108.00" occupancy="6.19" speed="8.29" harmonicMeanSpeed="2.57" length="5.00" nVehEntered="10"/>
    <interval begin="900.00" end="1200.00" id="myLoop2" nVehContrib="18" flow="216.00" occupancy="66.80" speed="3.27" harmonicMeanSpeed="0.53" length="5.00" nVehEntered="18"/>
    <interval begin="900.00" end="1200.00" id="myLoop3" nVehContrib="30" flow="360.00" occupancy="44.68" speed="7.08" harmonicMeanSpeed="2.16" length="5.00" nVehEntered="31"/>
    <interval begin="900.00" end="1200.00" id="myLoop4" nVehContrib="14" flow="168.00" occupancy="54.43" speed="2.71" harmonicMeanSpeed="0.43" length="5.00" nVehEntered="14"/>
    <interval begin="900.00" end="1200.00" id="myLoop5" nVehContrib="33" flow="396.00" occupancy="32.59" speed="8.04" harmonicMeanSpeed="2.41" length="5.00" nVehEntered="34"/>
    <interval begin="900.00" end="1200.00" id="myLoop6" nVehContrib="34" flow="408.00" occupancy="76.43" speed="3.31" harmonicMeanSpeed="0.85" length="5.00" nVehEntered="34"/>
    <interval begin="900.00" end="1200.00" id="myLoop7" nVehContrib="56" flow="672.00" occupancy="60.84" speed="6.60" harmonicMeanSpeed="1.24" length="5.00" nVehEntered="55"/>
    <interval begin="900.00" end="1200.00" id="myLoop8" nVehContrib="31" flow="372.00" occupancy="67.39" speed="3.00" harmonicMeanSpeed="0.63" length="5.00" nVehEntered="30"/>
    <interval begin="1200.00" end="1500.00" id="myLoop1" nVehContrib="15" flow="180.00" occupancy="43.79" speed="6.23" harmonicMeanSpeed="0.64" length="5.00" nVehEntered="18"/>
    <interval begin="1200.00" end="1500.00" id="myLoop2" nVehContrib="15" flow="180.00" occupancy="61.22" speed="2.54" harmonicMeanSpeed="0.35" length="5.00" nVehEntered="14"/>
    <interval begin="1200.00" end="1500.00" id="myLoop3" nVehContrib="27" flow="324.00" occupancy="50.46" speed="7.32" harmonicMeanSpeed="0.93" length="5.00" nVehEntered="28"/>
    <interval begin="1200.00" end="1500.00" id="myLoop4" nVehContrib="27" flow="324.00" occupancy="69.41" speed="3.39" harmonicMeanSpeed="0.71" length="5.00" nVehEntered="28"/>
    <interval begin="1200.00" end="1500.00" id="myLoop5" nVehContrib="43" flow="516.00" occupancy="62.93" speed="5.96" harmonicMeanSpeed="0.99" length="5.00" nVehEntered="42"/>
    <interval begin="1200.00" end="1500.00" id="myLoop6" nVehContrib="38" flow="456.00" occupancy="71.44" speed="3.61" harmonicMeanSpeed="0.78" length="5.00" nVehEntered="37"/>
    <interval begin="1200.00" end="1500.00" id="myLoop7" nVehContrib="27" flow="324.00" occupancy="20.86" speed="7.46" harmonicMeanSpeed="2.16" length="5.00" nVehEntered="27"/>
    <interval begin="1200.00" end="1500.00" id="myLoop8" nVehContrib="31" flow="372.00" occupancy="67.73" speed="3.88" harmonicMeanSpeed="0.83" length="5.00" nVehEntered="32"/>
    <interval begin="1500.00" end="1800.00" id="myLoop1" nVehContrib="5" flow="60.00" occupancy="56.14" speed="5.28" harmonicMeanSpeed="5.17" length="5.00" nVehEntered="6"/>
    <interval begin="1500.00" end="1800.00" id="myLoop2" nVehContrib="17" flow="204.00" occupancy="23.99" speed="3.46" harmonicMeanSpeed="1.18" length="5.00" nVehEntered="17"/>
    <interval begin="1500.00" end="1800.00" id="myLoop3" nVehContrib="21" flow="252.00" occupancy="37.02" speed="6.07" harmonicMeanSpeed="1.52" length="5.00" nVehEntered="22"/>
    <interval begin="1500.00" end="1800.00" id="myLoop4" nVehContrib="26" flow="312.00" occupancy="72.14" speed="3.24" harmonicMeanSpeed="0.69" length="5.00" nVehEntered="26"/>
    <interval begin="1500.00" end="1800.00" id="myLoop5" nVehContrib="47" flow="564.00" occupancy="43.35" speed="6.69" harmonicMeanSpeed="1.81" length="5.00" nVehEntered="47"/>
    <interval begin="1500.00" end="1800.00" id="myLoop6" nVehContrib="48" flow="576.00" occupancy="66.32" speed="4.16" harmonicMeanSpeed="1.21" length="5.00" nVehEntered="49"/>
    <interval begin="1500.00" end="1800.00" id="myLoop7" nVehContrib="20" flow="240.00" occupancy="25.25" speed="7.66" harmonicMeanSpeed="3.48" length="5.00" nVehEntered="22"/>
    <interval begin="1500.00" end="1800.00" id="myLoop8" nVehContrib="25" flow="300.00" occupancy="74.06" speed="3.50" harmonicMeanSpeed="0.65" length="5.00" nVehEntered="25"/>
    <interval begin="1800.00" end="2100.00" id="myLoop1" nVehContrib="11" flow="132.00" occupancy="26.47" speed="7.68" harmonicMeanSpeed="1.09" length="5.00" nVehEntered="12"/>
    <interval begin="1800.00" end="2100.00" id="myLoop2" nVehContrib="17" flow="204.00" occupancy="67.43" speed="3.13" harmonicMeanSpeed="0.49" length="5.00" nVehEntered="18"/>
    <interval begin="1800.00" end="2100.00" id="myLoop3" nVehContrib="34" flow="408.00" occupancy="38.48" speed="6.00" harmonicMeanSpeed="1.08" length="5.00" nVehEntered="33"/>
    <interval begin="1800.00" end="2100.00" id="myLoop4" nVehContrib="34" flow="408.00" occupancy="66.96" speed="3.13" harmonicMeanSpeed="0.69" length="5.00" nVehEntered="34"/>
    <interval begin="1800.00" end="2100.00" id="myLoop5" nVehContrib="41" flow="492.00" occupancy="46.14" speed="7.19" harmonicMeanSpeed="1.77" length="5.00" nVehEntered="43"/>
    <interval begin="1800.00" end="2100.00" id="myLoop6" nVehContrib="38" flow="456.00" occupancy="75.51" speed="3.45" harmonicMeanSpeed="0.96" length="5.00" nVehEntered="38"/>
    <interval begin="1800.00" end="2100.00" id="myLoop7" nVehContrib="20" flow="240.00" occupancy="26.23" speed="5.32" harmonicMeanSpeed="0.81" length="5.00" nVehEntered="20"/>
    <interval begin="1800.00" end="2100.00" id="myLoop8" nVehContrib="27" flow="324.00" occupancy="60.96" speed="2.96" harmonicMeanSpeed="0.59" length="5.00" nVehEntered="27"/>
    <interval begin="2100.00" end="2400.00" id="myLoop1" nVehContrib="33" flow="396.00" occupancy="60.35" speed="6.65" harmonicMeanSpeed="1.06" length="5.00" nVehEntered="33"/>
    <interval begin="2100.00" end="2400.00" id="myLoop2" nVehContrib="25" flow="300.00" occupancy="63.19" speed="3.36" harmonicMeanSpeed="0.57" length="5.00" nVehEntered="25"/>
    <interval begin="2100.00" end="2400.00" id="myLoop3" nVehContrib="9" flow="108.00" occupancy="20.66" speed="5.38" harmonicMeanSpeed="0.80" length="5.00" nVehEntered="10"/>
    <interval begin="2100.00" end="2400.00" id="myLoop4" nVehContrib="11" flow="132.00" occupancy="60.13" speed="1.96" harmonicMeanSpeed="0.33" length="5.00" nVehEntered="11"/>
    <interval begin="2100.00" end="2400.00" id="myLoop5" nVehContrib="29" flow="348.00" occupancy="36.32" speed="6.09" harmonicMeanSpeed="1.10" length="5.00" nVehEntered="28"/>
    <interval begin="2100.00" end="2400.00" id="myLoop6" nVehContrib="25" flow="300.00" occupancy="68.30" speed="3.32" harmonicMeanSpeed="0.55" length="5.00" nVehEntered="25"/>
    <interval begin="2100.00" end="2400.00" id="myLoop7" nVehContrib="53" flow="636.00" occupancy="50.45" speed="6.81" harmonicMeanSpeed="1.87" length="5.00" nVehEntered="55"/>
    <interval begin="2100.00" end="2400.00" id="myLoop8" nVehContrib="43" flow="516.00" occupancy="69.76" speed="4.30" harmonicMeanSpeed="1.11" length="5.00" nVehEntered="43"/>
    <interval begin="2400.00" end="2700.00" id="myLoop1" nVehContrib="26" flow="312.00" occupancy="38.57" speed="8.31" harmonicMeanSpeed="1.87" length="5.00" nVehEntered="27"/>
    <interval begin="2400.00" end="2700.00" id="myLoop2" nVehContrib="13" flow="156.00" occupancy="55.25" speed="2.58" harmonicMeanSpeed="0.39" length="5.00" nVehEntered="12"/>
    <interval begin="2400.00" end="2700.00" id="myLoop3" nVehContrib="35" flow="420.00" occupancy="50.60" speed="6.32" harmonicMeanSpeed="1.65" length="5.00" nVehEntered="36"/>
    <interval begin="2400.00" end="2700.00" id="myLoop4" nVehContrib="33" flow="396.00" occupancy="71.93" speed="4.07" harmonicMeanSpeed="0.89" length="5.00" nVehEntered="33"/>
    <interval begin="2400.00" end="2700.00" id="myLoop5" nVehContrib="51" flow="612.00" occupancy="43.30" speed="7.29" harmonicMeanSpeed="1.96" length="5.00" nVehEntered="51"/>
    <interval begin="2400.00" end="2700.00" id="myLoop6" nVehContrib="34" flow="408.00" occupancy="64.98" speed="3.44" harmonicMeanSpeed="0.84" length="5.00" nVehEntered="34"/>
    <interval begin="2400.00" end="2700.00" id="myLoop7" nVehContrib="10" flow="120.00" occupancy="30.32" speed="5.34" harmonicMeanSpeed="1.02" length="5.00" nVehEntered="10"/>
    <interval begin="2400.00" end="2700.00" id="myLoop8" nVehContrib="19" flow="228.00" occupancy="67.65" speed="2.88" harmonicMeanSpeed="0.54" length="5.00" nVehEntered="19"/>
    <interval begin="2700.00" end="3000.00" id="myLoop1" nVehContrib="11" flow="132.00" occupancy="17.67" speed="7.72" harmonicMeanSpeed="7.22" length="5.00" nVehEntered="14"/>
    <interval begin="2700.00" end="3000.00" id="myLoop2" nVehContrib="30" flow="360.00" occupancy="73.38" speed="3.69" harmonicMeanSpeed="0.79" length="5.00" nVehEntered="31"/>
    <interval begin="2700.00" end="3000.00" id="myLoop3" nVehContrib="26" flow="312.00" occupancy="38.03" speed="6.84" harmonicMeanSpeed="0.81" length="5.00" nVehEntered="25"/>
    <interval begin="2700.00" end="3000.00" id="myLoop4" nVehContrib="25" flow="300.00" occupancy="59.04" speed="3.88" harmonicMeanSpeed="0.56" length="5.00" nVehEntered="24"/>
    <interval begin="2700.00" end="3000.00" id="myLoop5" nVehContrib="22" flow="264.00" occupancy="34.33" speed="6.77" harmonicMeanSpeed="1.07" length="5.00" nVehEntered="22"/>
    <interval begin="2700.00" end="3000.00" id="myLoop6" nVehContrib="33" flow="396.00" occupancy="71.32" speed="3.87" harmonicMeanSpeed="0.90" length="5.00" nVehEntered="33"/>
    <interval begin="2700.00" end="3000.00" id="myLoop7" nVehContrib="39" flow="468.00" occupancy="41.79" speed="6.56" harmonicMeanSpeed="1.56" length="5.00" nVehEntered="40"/>
    <interval begin="2700.00" end="3000.00" id="myLoop8" nVehContrib="32" flow="384.00" occupancy="64.24" speed="3.31" harmonicMeanSpeed="0.67" length="5.00" nVehEntered="31"/>
    <interval begin="3000.00" end="3300.00" id="myLoop1" nVehContrib="37" flow="444.00" occupancy="20.48" speed="7.31" harmonicMeanSpeed="2.07" length="5.00" nVehEntered="37"/>
    <interval begin="3000.00" end="3300.00" id="myLoop2" nVehContrib="17" flow="204.00" occupancy="61.34" speed="2.24" harmonicMeanSpeed="0.40" length="5.00" nVehEntered="16"/>
    <interval begin="3000.00" end="3300.00" id="myLoop3" nVehContrib="25" flow="300.00" occupancy="34.98" speed="6.43" harmonicMeanSpeed="1.19" length="5.00" nVehEntered="25"/>
    <interval begin="3000.00" end="3300.00" id="myLoop4" nVehContrib="17" flow="204.00" occupancy="65.83" speed="2.73" harmonicMeanSpeed="0.46" length="5.00" nVehEntered="18"/>
    <interval begin="3000.00" end="3300.00" id="myLoop5" nVehContrib="36" flow="432.00" occupancy="38.30" speed="6.88" harmonicMeanSpeed="1.57" length="5.00" nVehEntered="36"/>
    <interval begin="3000.00" end="3300.00" id="myLoop6" nVehContrib="23" flow="276.00" occupancy="70.50" speed="2.60" harmonicMeanSpeed="0.48" length="5.00" nVehEntered="22"/>
    <interval begin="3000.00" end="3300.00" id="myLoop7" nVehContrib="46" flow="552.00" occupancy="58.79" speed="7.72" harmonicMeanSpeed="1.41" length="5.00" nVehEntered="47"/>
    <interval begin="3000.00" end="3300.00" id="myLoop8" nVehContrib="37" flow="444.00" occupancy="72.76" speed="3.89" harmonicMeanSpeed="0.91" length="5.00" nVehEntered="38"/>
    <interval begin="3300.00" end="3600.00" id="myLoop1" nVehContrib="24" flow="288.00" occupancy="34.83" speed="7.29" harmonicMeanSpeed="1.15" length="5.00" nVehEntered="24"/>
    <interval begin="3300.00" end="3600.00" id="myLoop2" nVehContrib="39" flow="468.00" occupancy="65.75" speed="3.80" harmonicMeanSpeed="0.99" length="5.00" nVehEntered="40"/>
    <interval begin="3300.00" end="3600.00" id="myLoop3" nVehContrib="7" flow="84.00" occupancy="14.57" speed="6.20" harmonicMeanSpeed="0.94" length="5.00" nVehEntered="9"/>
    <interval begin="3300.00" end="3600.00" id="myLoop4" nVehContrib="15" flow="180.00" occupancy="63.43" speed="3.35" harmonicMeanSpeed="0.47" length="5.00" nVehEntered="15"/>
    <interval begin="3300.00" end="3600.00" id="myLoop5" nVehContrib="18" flow="216.00" occupancy="49.98" speed="5.34" harmonicMeanSpeed="0.60" length="5.00" nVehEntered="19"/>
    <interval begin="3300.00" end="3600.00" id="myLoop6" nVehContrib="33" flow="396.00" occupancy="61.94" speed="3.66" harmonicMeanSpeed="0.89" length="5.00" nVehEntered="33"/>
    <interval begin="3300.00" end="3600.00" id="myLoop7" nVehContrib="41" flow="492.00" occupancy="66.19" speed="6.84" harmonicMeanSpeed="1.22" length="5.00" nVehEntered="41"/>
    <interval begin="3300.00" end="3600.00" id="myLoop8" nVehContrib="37" flow="444.00" occupancy="73.30" speed="3.62" harmonicMeanSpeed="0.98" length="5.00" nVehEntered="37"/>
    <interval begin="3600.00" end="3900.00" id="myLoop1" nVehContrib="44" flow="528.00" occupancy="65.58" speed="7.22" harmonicMeanSpeed="1.31" length="5.00" nVehEntered="45"/>
    <interval begin="3600.00" end="3900.00" id="myLoop2" nVehContrib="35" flow="420.00" occupancy="74.32" speed="3.45" harmonicMeanSpeed="0.91" length="5.00" nVehEntered="35"/>
    <interval begin="3600.00" end="3900.00" id="myLoop3" nVehContrib="16" flow="192.00" occupancy="18.85" speed="8.25" harmonicMeanSpeed="1.42" length="5.00" nVehEntered="16"/>
    <interval begin="3600.00" end="3900.00" id="myLoop4" nVehContrib="25" flow="300.00" occupancy="64.82" speed="3.00" harmonicMeanSpeed="0.52" length="5.00" nVehEntered="24"/>
    <interval begin="3600.00" end="3900.00" id="myLoop5" nVehContrib="14" flow="168.00" occupancy="69.82" speed="6.35" harmonicMeanSpeed="0.89" length="5.00" nVehEntered="16"/>
    <interval begin="3600.00" end="3900.00" id="myLoop6" nVehContrib="12" flow="144.00" occupancy="62.71" speed="2.36" harmonicMeanSpeed="0.38" length="5.00" nVehEntered="13"/>
    <interval begin="3600.00" end="3900.00" id="myLoop7" nVehContrib="38" flow="456.00" occupancy="53.86" speed="6.51" harmonicMeanSpeed="0.93" length="5.00" nVehEntered="38"/>
    <interval begin="3600.00" end="3900.00" id="myLoop8" nVehContrib="37" flow="444.00" occupancy="69.67" speed="3.67" harmonicMeanSpeed="0.73" length="5.00" nVehEntered="37"/>
    <interval begin="3900.00" end="4200.00" id="myLoop1" nVehContrib="30" flow="360.00" occupancy="66.62" speed="5.07" harmonicMeanSpeed="0.66" length="5.00" nVehEntered="30"/>
    <interval begin="3900.00" end="4200.00" id="myLoop2" nVehContrib="17" flow="204.00" occupancy="64.38" speed="2.30" harmonicMeanSpeed="0.38" length="5.00" nVehEntered="16"/>
    <interval begin="3900.00" end="4200.00" id="myLoop3" nVehContrib="29" flow="348.00" occupancy="37.90" speed="6.63" harmonicMeanSpeed="1.34" length="5.00" nVehEntered="32"/>
    <interval begin="3900.00" end="4200.00" id="myLoop4" nVehContrib="35" flow="420.00" occupancy="71.87" speed="3.67" harmonicMeanSpeed="0.87" length="5.00" nVehEntered="36"/>
    <interval begin="3900.00" end="4200.00" id="myLoop5" nVehContrib="39" flow="468.00" occupancy="60.45" speed="6.58" harmonicMeanSpeed="0.92" length="5.00" nVehEntered="39"/>
    <interval begin="3900.00" end="4200.00" id="myLoop6" nVehContrib="25" flow="300.00" occupancy="68.78" speed="3.18" harmonicMeanSpeed="0.53" length="5.00" nVehEntered="25"/>
    <interval begin="3900.00" end="4200.00" id="myLoop7" nVehContrib="17" flow="204.00" occupancy="21.88" speed="8.31" harmonicMeanSpeed="1.50" length="5.00" nVehEntered="18"/>
    <interval begin="3900.00" end="4200.00" id="myLoop8" nVehContrib="28" flow="336.00" occupancy="66.82" speed="3.39" harmonicMeanSpeed="0.75" length="5.00" nVehEntered="28"/>
    <interval begin="4200.00" end="4500.00" id="myLoop1" nVehContrib="28" flow="336.00" occupancy="48.73" speed="6.13" harmonicMeanSpeed="0.95" length="5.00" nVehEntered="27"/>
    <interval begin="4200.00" end="4500.00" id="myLoop2" nVehContrib="26" flow="312.00" occupancy="61.18" speed="3.35" harmonicMeanSpeed="0.72" length="5.00" nVehEntered="27"/>
    <interval begin="4200.00" end="4500.00" id="myLoop3" nVehContrib="13" flow="156.00" occupancy="47.30" speed="6.28" harmonicMeanSpeed="1.44" length="5.00" nVehEntered="13"/>
    <interval begin="4200.00" end="4500.00" id="myLoop4" nVehContrib="18" flow="216.00" occupancy="66.28" speed="3.19" harmonicMeanSpeed="0.53" length="5.00" nVehEntered="18"/>
    <interval begin="4200.00" end="4500.00" id="myLoop5" nVehContrib="39" flow="468.00" occupancy="53.79" speed="6.11" harmonicMeanSpeed="1.21" length="5.00" nVehEntered="38"/>
    <interval begin="4200.00" end="4500.00" id="myLoop6" nVehContrib="33" flow="396.00" occupancy="62.69" speed="3.58" harmonicMeanSpeed="0.87" length="5.00" nVehEntered="33"/>
    <interval begin="4200.00" end="4500.00" id="myLoop7" nVehContrib="33" flow="396.00" occupancy="47.11" speed="6.71" harmonicMeanSpeed="1.46" length="5.00" nVehEntered="33"/>
    <interval begin="4200.00" end="4500.00" id="myLoop8" nVehContrib="35" flow="420.00" occupancy="74.68" speed="3.63" harmonicMeanSpeed="0.91" length="5.00" nVehEntered="35"/>
    <interval begin="4500.00" end="4800.00" id="myLoop1" nVehContrib="30" flow="360.00" occupancy="31.20" speed="7.93" harmonicMeanSpeed="2.62" length="5.00" nVehEntered="32"/>
    <interval begin="4500.00" end="4800.00" id="myLoop2" nVehContrib="32" flow="384.00" occupancy="73.65" speed="3.43" harmonicMeanSpeed="0.83" length="5.00" nVehEntered="32"/>
    <interval begin="4500.00" end="4800.00" id="myLoop3" nVehContrib="29" flow="348.00" occupancy="39.00" speed="6.19" harmonicMeanSpeed="1.26" length="5.00" nVehEntered="30"/>
    <interval begin="4500.00" end="4800.00" id="myLoop4" nVehContrib="21" flow="252.00" occupancy="55.86" speed="3.58" harmonicMeanSpeed="0.49" length="5.00" nVehEntered="20"/>
    <interval begin="4500.00" end="4800.00" id="myLoop5" nVehContrib="23" flow="276.00" occupancy="56.81" speed="7.45" harmonicMeanSpeed="1.11" length="5.00" nVehEntered="27"/>
    <interval begin="4500.00" end="4800.00" id="myLoop6" nVehContrib="23" flow="276.00" occupancy="66.60" speed="4.12" harmonicMeanSpeed="0.68" length="5.00" nVehEntered="23"/>
    <interval begin="4500.00" end="4800.00" id="myLoop7" nVehContrib="39" flow="468.00" occupancy="41.27" speed="6.51" harmonicMeanSpeed="1.23" length="5.00" nVehEntered="40"/>
    <interval begin="4500.00" end="4800.00" id="myLoop8" nVehContrib="37" flow="444.00" occupancy="69.52" speed="3.50" harmonicMeanSpeed="0.73" length="5.00" nVehEntered="36"/>
    <interval begin="4800.00" end="5100.00" id="myLoop1" nVehContrib="31" flow="372.00" occupancy="29.67" speed="6.06" harmonicMeanSpeed="1.31" length="5.00" nVehEntered="31"/>
    <interval begin="4800.00" end="5100.00" id="myLoop2" nVehContrib="20" flow="240.00" occupancy="66.22" speed="2.83" harmonicMeanSpeed="0.44" length="5.00" nVehEntered="19"/>
    <interval begin="4800.00" end="5100.00" id="myLoop3" nVehContrib="13" flow="156.00" occupancy="3.60" speed="6.70" harmonicMeanSpeed="6.02" length="5.00" nVehEntered="13"/>
    <interval begin="4800.00" end="5100.00" id="myLoop4" nVehContrib="20" flow="240.00" occupancy="61.60" speed="3.50" harmonicMeanSpeed="0.60" length="5.00" nVehEntered="21"/>
    <interval begin="4800.00" end="5100.00" id="myLoop5" nVehContrib="37" flow="444.00" occupancy="43.83" speed="7.11" harmonicMeanSpeed="1.13" length="5.00" nVehEntered="36"/>
    <interval begin="4800.00" end="5100.00" id="myLoop6" nVehContrib="27" flow="324.00" occupancy="70.94" speed="2.78" harmonicMeanSpeed="0.55" length="5.00" nVehEntered="26"/>
    <interval begin="4800.00" end="5100.00" id="myLoop7" nVehContrib="41" flow="492.00" occupancy="59.35" speed="6.83" harmonicMeanSpeed="1.23" length="5.00" nVehEntered="41"/>
    <interval begin="4800.00" end="5100.00" id="myLoop8" nVehContrib="38" flow="456.00" occupancy="69.92" speed="3.67" harmonicMeanSpeed="0.98" length="5.00" nVehEntered="39"/>
    <interval begin="5100.00" end="5400.00" id="myLoop1" nVehContrib="24" flow="288.00" occupancy="31.19" speed="7.57" harmonicMeanSpeed="1.29" length="5.00" nVehEntered="24"/>
    <interval begin="5100.00" end="5400.00" id="myLoop2" nVehContrib="30" flow="360.00" occupancy="61.70" speed="3.42" harmonicMeanSpeed="0.81" length="5.00" nVehEntered="30"/>
    <interval begin="5100.00" end="5400.00" id="myLoop3" nVehContrib="34" flow="408.00" occupancy="31.18" speed="6.71" harmonicMeanSpeed="1.82" length="5.00" nVehEntered="34"/>
    <interval begin="5100.00" end="5400.00" id="myLoop4" nVehContrib="18" flow="216.00" occupancy="68.01" speed="2.69" harmonicMeanSpeed="0.52" length="5.00" nVehEntered="18"/>
    <interval begin="5100.00" end="5400.00" id="myLoop5" nVehContrib="31" flow="372.00" occupancy="37.18" speed="6.71" harmonicMeanSpeed="1.41" length="5.00" nVehEntered="32"/>
    <interval begin="5100.00" end="5400.00" id="myLoop6" nVehContrib="33" flow="396.00" occupancy="67.02" speed="3.31" harmonicMeanSpeed="0.82" length="5.00" nVehEntered="34"/>
    <interval begin="5100.00" end="5400.00" id="myLoop7" nVehContrib="30" flow="360.00" occupancy="33.60" speed="6.85" harmonicMeanSpeed="1.33" length="5.00" nVehEntered="29"/>
    <interval begin="5100.00" end="5400.00" id="myLoop8" nVehContrib="20" flow="240.00" occupancy="67.35" speed="3.11" harmonicMeanSpeed="0.58" length="5.00" nVehEntered="20"/>
    <interval begin="5400.00" end="5700.00" id="myLoop1" nVehContrib="7" flow="84.00" occupancy="17.20" speed="6.44" harmonicMeanSpeed="0.67" length="5.00" nVehEntered="6"/>
    <interval begin="5400.00" end="5700.00" id="myLoop2" nVehContrib="10" flow="120.00" occupancy="62.01" speed="2.10" harmonicMeanSpeed="0.32" length="5.00" nVehEntered="11"/>
    <interval begin="5400.00" end="5700.00" id="myLoop3" nVehContrib="30" flow="360.00" occupancy="48.11" speed="5.53" harmonicMeanSpeed="1.04" length="5.00" nVehEntered="30"/>
    <interval begin="5400.00" end="5700.00" id="myLoop4" nVehContrib="30" flow="360.00" occupancy="64.46" speed="3.57" harmonicMeanSpeed="0.62" length="5.00" nVehEntered="29"/>
    <interval begin="5400.00" end="5700.00" id="myLoop5" nVehContrib="41" flow="492.00" occupancy="50.64" speed="6.40" harmonicMeanSpeed="1.69" length="5.00" nVehEntered="42"/>
    <interval begin="5400.00" end="5700.00" id="myLoop6" nVehContrib="37" flow="444.00" occupancy="76.72" speed="3.66" harmonicMeanSpeed="0.92" length="5.00" nVehEntered="37"/>
    <interval begin="5400.00" end="5700.00" id="myLoop7" nVehContrib="33" flow="396.00" occupancy="39.76" speed="6.33" harmonicMeanSpeed="1.38" length="5.00" nVehEntered="33"/>
    <interval begin="5400.00" end="5700.00" id="myLoop8" nVehContrib="32" flow="384.00" occupancy="62.66" speed="3.15" harmonicMeanSpeed="0.69" length="5.00" nVehEntered="31"/>
    <interval begin="5700.00" end="6000.00" id="myLoop1" nVehContrib="14" flow="168.00" occupancy="61.56" speed="5.12" harmonicMeanSpeed="0.38" length="5.00" nVehEntered="15"/>
    <interval begin="5700.00" end="6000.00" id="myLoop2" nVehContrib="8" flow="96.00" occupancy="68.37" speed="1.75" harmonicMeanSpeed="0.17" length="5.00" nVehEntered="7"/>
    <interval begin="5700.00" end="6000.00" id="myLoop3" nVehContrib="29" flow="348.00" occupancy="34.20" speed="7.05" harmonicMeanSpeed="1.41" length="5.00" nVehEntered="29"/>
    <interval begin="5700.00" end="6000.00" id="myLoop4" nVehContrib="20" flow="240.00" occupancy="67.07" speed="3.20" harmonicMeanSpeed="0.54" length="5.00" nVehEntered="21"/>
    <interval begin="5700.00" end="6000.00" id="myLoop5" nVehContrib="50" flow="600.00" occupancy="65.45" speed="6.26" harmonicMeanSpeed="1.10" length="5.00" nVehEntered="50"/>
    <interval begin="5700.00" end="6000.00" id="myLoop6" nVehContrib="44" flow="528.00" occupancy="72.15" speed="3.82" harmonicMeanSpeed="0.90" length="5.00" nVehEntered="43"/>
    <interval begin="5700.00" end="6000.00" id="myLoop7" nVehContrib="30" flow="360.00" occupancy="13.00" speed="7.13" harmonicMeanSpeed="6.28" length="5.00" nVehEntered="31"/>
    <interval begin="5700.00" end="6000.00" id="myLoop8" nVehContrib="28" flow="336.00" occupancy="67.23" speed="3.41" harmonicMeanSpeed="0.75" length="5.00" nVehEntered="29"/>
    <interval begin="6000.00" end="6300.00" id="myLoop1" nVehContrib="33" flow="396.00" occupancy="71.95" speed="6.33" harmonicMeanSpeed="0.94" length="5.00" nVehEntered="33"/>
    <interval begin="6000.00" end="6300.00" id="myLoop2" nVehContrib="21" flow="252.00" occupancy="56.03" speed="3.09" harmonicMeanSpeed="0.62" length="5.00" nVehEntered="21"/>
    <interval begin="6000.00" end="6300.00" id="myLoop3" nVehContrib="13" flow="156.00" occupancy="34.34" speed="6.09" harmonicMeanSpeed="1.17" length="5.00" nVehEntered="15"/>
    <interval begin="6000.00" end="6300.00" id="myLoop4" nVehContrib="16" flow="192.00" occupancy="74.94" speed="2.64" harmonicMeanSpeed="0.41" length="5.00" nVehEntered="16"/>
    <interval begin="6000.00" end="6300.00" id="myLoop5" nVehContrib="37" flow="444.00" occupancy="46.25" speed="7.14" harmonicMeanSpeed="1.33" length="5.00" nVehEntered="36"/>
    <interval begin="6000.00" end="6300.00" id="myLoop6" nVehContrib="26" flow="312.00" occupancy="59.26" speed="3.31" harmonicMeanSpeed="0.73" length="5.00" nVehEntered="26"/>